<?xml version="1.0" encoding="UTF-8"?>

<!-- generated on 2025-06-14 14:04:38 by Eclipse SUMO GUI Version 1.22.0
<sumoConfiguration xmlns:xsi="http://www.w3.org/2001/XMLSchema-instance" xsi:noNamespaceSchemaLocation="http://sumo.dlr.de/xsd/sumoConfiguration.xsd">

    <input>
        <net-file value="M50network.net.xml.gz"/>
        <additional-files value="edgesData.add.xml,simpla.cfg.xml,vtypes.add.xml,M50_routes.rou.xml,M50_emitters.emi.xml,M50_detectors.poi.xml"/>
    </input>

    <output>
        <summary-output value="summary.xml"/>
        <tripinfo-output value="tripinfo.xml"/>
        <collision-output value="collisions.xml"/>
    </output>

    <time>
        <begin value="25200"/>
        <end value="27000"/>
        <step-length value="0.2"/>
    </time>

    <processing>
        <ignore-route-errors value="true"/>
        <collision.action value="warn"/>
        <collision.check-junctions value="true"/>
        <collision.mingap-factor value="0"/>
        <time-to-teleport value="300"/>
        <time-to-teleport.highways value="0"/>
        <max-depart-delay value="600"/>
        <emergencydecel.warning-threshold value="5"/>
    </processing>

    <report>
        <verbose value="true"/>
        <xml-validation.routes value="never"/>
        <log value="simulation.log"/>
        <duration-log.statistics value="true"/>
        <no-step-log value="false"/>
    </report>

    <traci_server>
        <remote-port value="55223"/>
    </traci_server>

</sumoConfiguration>
-->

<tripinfos xmlns:xsi="http://www.w3.org/2001/XMLSchema-instance" xsi:noNamespaceSchemaLocation="http://sumo.dlr.de/xsd/tripinfo_file.xsd">
    <tripinfo id="N7-W2.1630" depart="25200.00" departLane="457424511#3_2" departPos="368.06" departSpeed="16.63" departDelay="0.00" arrival="25297.40" arrivalLane="428960734_0" arrivalPos="475.38" arrivalSpeed="24.00" duration="97.40" routeLength="1894.29" waitingTime="0.00" waitingCount="0" stopTime="0.00" timeLoss="0.28" rerouteNo="0" devices="tripinfo_N7-W2.1630 ssm_N7-W2.1630" vType="t_leader4" speedFactor="1.08" vaporized=""/>
    <tripinfo id="N7-W3.1605" depart="25200.00" departLane="457424511#3_1" departPos="341.81" departSpeed="16.77" departDelay="0.00" arrival="25297.80" arrivalLane="428960734_0" arrivalPos="475.38" arrivalSpeed="25.67" duration="97.80" routeLength="1920.54" waitingTime="0.00" waitingCount="0" stopTime="0.00" timeLoss="11.51" rerouteNo="0" devices="tripinfo_N7-W3.1605 ssm_N7-W3.1605" vType="t_follower4" speedFactor="1.25" vaporized=""/>
    <tripinfo id="NRA_000000001070_Eastbound-1.205" depart="25200.00" departLane="293596618#1-AddedOffRampEdge_2" departPos="219.85" departSpeed="22.30" departDelay="0.00" arrival="25306.00" arrivalLane="615002705#1_0" arrivalPos="622.13" arrivalSpeed="18.00" duration="106.00" routeLength="1955.39" waitingTime="0.00" waitingCount="0" stopTime="0.00" timeLoss="0.08" rerouteNo="0" devices="tripinfo_NRA_000000001070_Eastbound-1.205 ssm_NRA_000000001070_Eastbound-1.205" vType="t_leader2" speedFactor="1.08" vaporized=""/>
    <tripinfo id="NRA_000000001070_Eastbound-3.2293" depart="25206.60" departLane="293596618#1-AddedOffRampEdge_3" departPos="265.88" departSpeed="23.07" departDelay="0.03" arrival="25306.60" arrivalLane="615002705#1_0" arrivalPos="622.13" arrivalSpeed="17.36" duration="100.00" routeLength="1909.36" waitingTime="0.00" waitingCount="0" stopTime="0.00" timeLoss="8.54" rerouteNo="0" devices="tripinfo_NRA_000000001070_Eastbound-3.2293 ssm_NRA_000000001070_Eastbound-3.2293" vType="t_follower2" speedFactor="1.04" vaporized=""/>
    <tripinfo id="NRA_000000001070_Eastbound-3.2297" depart="25215.40" departLane="293596618#1-AddedOffRampEdge_2" departPos="439.80" departSpeed="22.28" departDelay="0.07" arrival="25307.20" arrivalLane="615002705#1_0" arrivalPos="622.13" arrivalSpeed="17.62" duration="91.80" routeLength="1735.44" waitingTime="0.00" waitingCount="0" stopTime="0.00" timeLoss="8.00" rerouteNo="0" devices="tripinfo_NRA_000000001070_Eastbound-3.2297 ssm_NRA_000000001070_Eastbound-3.2297" vType="t_follower2" speedFactor="1.04" vaporized=""/>
    <tripinfo id="NRA_000000001509_Northbound-off-slip-1.765" depart="25200.00" departLane="75259388-AddedOffRampEdge_0" departPos="333.76" departSpeed="28.07" departDelay="0.00" arrival="25307.20" arrivalLane="428960734_0" arrivalPos="475.38" arrivalSpeed="24.00" duration="107.20" routeLength="2325.36" waitingTime="0.00" waitingCount="0" stopTime="0.00" timeLoss="0.68" rerouteNo="0" devices="tripinfo_NRA_000000001509_Northbound-off-slip-1.765 ssm_NRA_000000001509_Northbound-off-slip-1.765" vType="t_leader2" speedFactor="1.08" vaporized=""/>
    <tripinfo id="NRA_000000001070_Eastbound-3.2291" depart="25202.20" departLane="293596618#1-AddedOffRampEdge_3" departPos="146.74" departSpeed="22.04" departDelay="0.01" arrival="25307.60" arrivalLane="615002705#1_0" arrivalPos="622.13" arrivalSpeed="19.31" duration="105.40" routeLength="2028.50" waitingTime="0.00" waitingCount="0" stopTime="0.00" timeLoss="10.52" rerouteNo="0" devices="tripinfo_NRA_000000001070_Eastbound-3.2291 ssm_NRA_000000001070_Eastbound-3.2291" vType="t_follower4" speedFactor="1.25" vaporized=""/>
    <tripinfo id="NRA_000000001509_Northbound-off-slip-2.469" depart="25200.00" departLane="75259388-AddedOffRampEdge_0" departPos="122.73" departSpeed="28.08" departDelay="0.00" arrival="25307.80" arrivalLane="428960734_0" arrivalPos="475.38" arrivalSpeed="26.32" duration="107.80" routeLength="2536.39" waitingTime="0.00" waitingCount="0" stopTime="0.00" timeLoss="4.51" rerouteNo="0" devices="tripinfo_NRA_000000001509_Northbound-off-slip-2.469 ssm_NRA_000000001509_Northbound-off-slip-2.469" vType="t_follower4" speedFactor="1.25" vaporized=""/>
    <tripinfo id="NRA_000000001509_Northbound-2.1581" depart="25200.00" departLane="75259388-AddedOffRampEdge_0" departPos="17.61" departSpeed="26.99" departDelay="0.00" arrival="25308.20" arrivalLane="428960734_0" arrivalPos="475.38" arrivalSpeed="25.25" duration="108.20" routeLength="2641.51" waitingTime="0.00" waitingCount="0" stopTime="0.00" timeLoss="9.89" rerouteNo="0" devices="tripinfo_NRA_000000001509_Northbound-2.1581 ssm_NRA_000000001509_Northbound-2.1581" vType="t_follower2" speedFactor="1.14" vaporized=""/>
    <tripinfo id="N7-W1.74" depart="25200.00" departLane="457424511#3_0" departPos="164.44" departSpeed="16.44" departDelay="0.00" arrival="25310.80" arrivalLane="345616204#1.655_0" arrivalPos="379.47" arrivalSpeed="27.78" duration="110.80" routeLength="2288.65" waitingTime="0.00" waitingCount="0" stopTime="0.00" timeLoss="0.75" rerouteNo="0" devices="tripinfo_N7-W1.74 ssm_N7-W1.74" vType="CAV4" speedFactor="1.00" vaporized=""/>
    <tripinfo id="NRA_000000001509_Northbound-3.664" depart="25203.20" departLane="75259388-AddedOffRampEdge_0" departPos="49.32" departSpeed="27.58" departDelay="0.01" arrival="25312.40" arrivalLane="428960734_0" arrivalPos="475.38" arrivalSpeed="22.22" duration="109.20" routeLength="2609.80" waitingTime="0.00" waitingCount="0" stopTime="0.00" timeLoss="1.14" rerouteNo="0" devices="tripinfo_NRA_000000001509_Northbound-3.664 ssm_NRA_000000001509_Northbound-3.664" vType="CAV4" speedFactor="1.00" vaporized=""/>
    <tripinfo id="NRA_000000001509_Northbound-1.1074" depart="25206.40" departLane="75259388-AddedOffRampEdge_0" departPos="57.88" departSpeed="28.28" departDelay="0.15" arrival="25314.20" arrivalLane="428960734_0" arrivalPos="475.38" arrivalSpeed="22.22" duration="107.80" routeLength="2601.24" waitingTime="0.00" waitingCount="0" stopTime="0.00" timeLoss="8.98" rerouteNo="0" devices="tripinfo_NRA_000000001509_Northbound-1.1074 ssm_NRA_000000001509_Northbound-1.1074" vType="CAV2" speedFactor="1.00" vaporized=""/>
    <tripinfo id="NRA_000000001509_Northbound-3.665" depart="25206.40" departLane="75259388-AddedOffRampEdge_0" departPos="10.61" departSpeed="27.98" departDelay="0.02" arrival="25316.20" arrivalLane="428960734_0" arrivalPos="475.38" arrivalSpeed="22.22" duration="109.80" routeLength="2648.51" waitingTime="0.00" waitingCount="0" stopTime="0.00" timeLoss="9.42" rerouteNo="0" devices="tripinfo_NRA_000000001509_Northbound-3.665 ssm_NRA_000000001509_Northbound-3.665" vType="CAV4" speedFactor="1.00" vaporized=""/>
    <tripinfo id="NRA_000000020047_Eastbound-3.1950" depart="25200.00" departLane="48516117_0" departPos="290.08" departSpeed="22.27" departDelay="0.00" arrival="25318.40" arrivalLane="621521116#0_1" arrivalPos="269.50" arrivalSpeed="16.67" duration="118.40" routeLength="2278.12" waitingTime="0.00" waitingCount="0" stopTime="0.00" timeLoss="0.06" rerouteNo="0" devices="tripinfo_NRA_000000020047_Eastbound-3.1950 ssm_NRA_000000020047_Eastbound-3.1950" vType="CAV4" speedFactor="1.00" vaporized=""/>
    <tripinfo id="NRA_000000001509_Northbound-2.1584" depart="25210.00" departLane="75259388-AddedOffRampEdge_0" departPos="223.00" departSpeed="27.72" departDelay="0.00" arrival="25318.60" arrivalLane="428960734_0" arrivalPos="475.38" arrivalSpeed="22.22" duration="108.60" routeLength="2436.12" waitingTime="1.20" waitingCount="1" stopTime="0.00" timeLoss="14.57" rerouteNo="0" devices="tripinfo_NRA_000000001509_Northbound-2.1584 ssm_NRA_000000001509_Northbound-2.1584" vType="CAV2" speedFactor="1.00" vaporized=""/>
    <tripinfo id="N7-W2.1632" depart="25208.60" departLane="457424511#3_0" departPos="19.42" departSpeed="16.98" departDelay="0.15" arrival="25321.20" arrivalLane="345616204#1.655_0" arrivalPos="379.47" arrivalSpeed="30.00" duration="112.60" routeLength="2433.67" waitingTime="0.00" waitingCount="0" stopTime="0.00" timeLoss="1.09" rerouteNo="0" devices="tripinfo_N7-W2.1632 ssm_N7-W2.1632" vType="t_leader4" speedFactor="1.08" vaporized=""/>
    <tripinfo id="N7-W2.1637" depart="25229.60" departLane="457424511#3_0" departPos="343.43" departSpeed="16.91" departDelay="0.02" arrival="25321.80" arrivalLane="345616204#1.655_0" arrivalPos="379.47" arrivalSpeed="31.62" duration="92.20" routeLength="2109.66" waitingTime="0.00" waitingCount="0" stopTime="0.00" timeLoss="12.58" rerouteNo="0" devices="tripinfo_N7-W2.1637 ssm_N7-W2.1637" vType="t_follower2" speedFactor="1.25" vaporized=""/>
    <tripinfo id="N7-W3.1608" depart="25211.40" departLane="457424511#3_1" departPos="259.26" departSpeed="16.89" departDelay="0.01" arrival="25322.80" arrivalLane="428960734_1" arrivalPos="475.38" arrivalSpeed="22.22" duration="111.40" routeLength="2003.09" waitingTime="0.00" waitingCount="0" stopTime="0.00" timeLoss="0.68" rerouteNo="0" devices="tripinfo_N7-W3.1608 ssm_N7-W3.1608" vType="CAV2" speedFactor="1.00" vaporized=""/>
    <tripinfo id="NRA_000000001509_Northbound-2.1587" depart="25220.00" departLane="75259388-AddedOffRampEdge_0" departPos="324.51" departSpeed="26.85" departDelay="0.00" arrival="25323.00" arrivalLane="428960734_0" arrivalPos="475.38" arrivalSpeed="22.72" duration="103.00" routeLength="2334.61" waitingTime="0.00" waitingCount="0" stopTime="0.00" timeLoss="3.61" rerouteNo="0" devices="tripinfo_NRA_000000001509_Northbound-2.1587 ssm_NRA_000000001509_Northbound-2.1587" vType="t_leader2" speedFactor="1.08" vaporized=""/>
    <tripinfo id="NRA_000000001509_Northbound-3.669" depart="25219.20" departLane="75259388-AddedOffRampEdge_0" departPos="251.06" departSpeed="27.72" departDelay="0.05" arrival="25323.80" arrivalLane="428960734_0" arrivalPos="475.38" arrivalSpeed="24.00" duration="104.60" routeLength="2408.06" waitingTime="0.00" waitingCount="0" stopTime="0.00" timeLoss="11.99" rerouteNo="0" devices="tripinfo_NRA_000000001509_Northbound-3.669 ssm_NRA_000000001509_Northbound-3.669" vType="t_leader2" speedFactor="1.08" vaporized=""/>
    <tripinfo id="N4-W1.1355" depart="25204.40" departLane="319144060_2" departPos="219.63" departSpeed="16.50" departDelay="0.05" arrival="25324.20" arrivalLane="491989399#1-AddedOnRampEdge.925_0" arrivalPos="393.57" arrivalSpeed="22.22" duration="119.80" routeLength="2347.16" waitingTime="0.00" waitingCount="0" stopTime="0.00" timeLoss="0.26" rerouteNo="0" devices="tripinfo_N4-W1.1355 ssm_N4-W1.1355" vType="CAV2" speedFactor="1.00" vaporized=""/>
    <tripinfo id="NRA_000000001509_Northbound-2.1588" depart="25223.40" departLane="75259388-AddedOffRampEdge_0" departPos="350.53" departSpeed="28.04" departDelay="0.07" arrival="25325.40" arrivalLane="428960734_0" arrivalPos="475.38" arrivalSpeed="23.15" duration="102.00" routeLength="2308.59" waitingTime="0.00" waitingCount="0" stopTime="0.00" timeLoss="12.18" rerouteNo="0" devices="tripinfo_NRA_000000001509_Northbound-2.1588 ssm_NRA_000000001509_Northbound-2.1588" vType="t_follower4" speedFactor="1.04" vaporized=""/>
    <tripinfo id="NRA_000000001509_Northbound-2.1585" depart="25213.40" departLane="75259388-AddedOffRampEdge_0" departPos="53.81" departSpeed="27.51" departDelay="0.07" arrival="25327.80" arrivalLane="428960734_0" arrivalPos="475.38" arrivalSpeed="22.22" duration="114.40" routeLength="2605.31" waitingTime="0.00" waitingCount="0" stopTime="0.00" timeLoss="12.90" rerouteNo="0" devices="tripinfo_NRA_000000001509_Northbound-2.1585 ssm_NRA_000000001509_Northbound-2.1585" vType="CAV2" speedFactor="1.00" vaporized=""/>
    <tripinfo id="NRA_000000001509_Northbound-3.663" depart="25200.00" departLane="75259388-AddedOffRampEdge_1" departPos="195.54" departSpeed="27.99" departDelay="0.00" arrival="25327.80" arrivalLane="615002705#1_0" arrivalPos="622.13" arrivalSpeed="16.67" duration="127.80" routeLength="2521.22" waitingTime="0.00" waitingCount="0" stopTime="0.00" timeLoss="0.79" rerouteNo="0" devices="tripinfo_NRA_000000001509_Northbound-3.663 ssm_NRA_000000001509_Northbound-3.663" vType="CAV2" speedFactor="1.00" vaporized=""/>
    <tripinfo id="NRA_000000001070_Eastbound-3.2300" depart="25222.00" departLane="293596618#1-AddedOffRampEdge_2" departPos="216.20" departSpeed="22.19" departDelay="0.10" arrival="25328.40" arrivalLane="615002705#1_1" arrivalPos="622.13" arrivalSpeed="18.00" duration="106.40" routeLength="1959.04" waitingTime="0.00" waitingCount="0" stopTime="0.00" timeLoss="0.56" rerouteNo="0" devices="tripinfo_NRA_000000001070_Eastbound-3.2300 ssm_NRA_000000001070_Eastbound-3.2300" vType="t_leader2" speedFactor="1.08" vaporized=""/>
    <tripinfo id="NRA_000000001070_Eastbound-3.2307" depart="25237.40" departLane="293596618#1-AddedOffRampEdge_2" departPos="463.96" departSpeed="23.01" departDelay="0.17" arrival="25329.00" arrivalLane="615002705#1_1" arrivalPos="622.13" arrivalSpeed="19.57" duration="91.60" routeLength="1711.28" waitingTime="0.00" waitingCount="0" stopTime="0.00" timeLoss="9.82" rerouteNo="0" devices="tripinfo_NRA_000000001070_Eastbound-3.2307 ssm_NRA_000000001070_Eastbound-3.2307" vType="t_follower2" speedFactor="1.25" vaporized=""/>
    <tripinfo id="NRA_000000001070_Eastbound-4.1355" depart="25224.00" departLane="293596618#1-AddedOffRampEdge_3" departPos="121.81" departSpeed="22.08" departDelay="0.11" arrival="25329.60" arrivalLane="615002705#1_0" arrivalPos="622.13" arrivalSpeed="18.00" duration="105.60" routeLength="2053.43" waitingTime="0.00" waitingCount="0" stopTime="0.00" timeLoss="9.18" rerouteNo="0" devices="tripinfo_NRA_000000001070_Eastbound-4.1355 ssm_NRA_000000001070_Eastbound-4.1355" vType="t_leader2" speedFactor="1.08" vaporized=""/>
    <tripinfo id="NRA_000000001070_Eastbound-2.2345" depart="25222.80" departLane="293596618#1-AddedOffRampEdge_3" departPos="62.97" departSpeed="22.45" departDelay="0.11" arrival="25330.20" arrivalLane="615002705#1_0" arrivalPos="622.13" arrivalSpeed="18.94" duration="107.40" routeLength="2112.27" waitingTime="0.00" waitingCount="0" stopTime="0.00" timeLoss="10.56" rerouteNo="0" devices="tripinfo_NRA_000000001070_Eastbound-2.2345 ssm_NRA_000000001070_Eastbound-2.2345" vType="t_follower4" speedFactor="1.14" vaporized=""/>
    <tripinfo id="NRA_000000020047_Eastbound-1.2681" depart="25214.60" departLane="48516117_1" departPos="380.83" departSpeed="22.11" departDelay="0.02" arrival="25331.40" arrivalLane="621521116#0_2" arrivalPos="269.50" arrivalSpeed="16.67" duration="116.80" routeLength="2187.37" waitingTime="0.00" waitingCount="0" stopTime="0.00" timeLoss="0.07" rerouteNo="0" devices="tripinfo_NRA_000000020047_Eastbound-1.2681 ssm_NRA_000000020047_Eastbound-1.2681" vType="CAV4" speedFactor="1.00" vaporized=""/>
    <tripinfo id="NRA_000000020047_Eastbound-3.1951" depart="25202.00" departLane="48516117_1" departPos="92.16" departSpeed="22.08" departDelay="0.05" arrival="25332.00" arrivalLane="621521116#0_1" arrivalPos="269.50" arrivalSpeed="16.67" duration="130.00" routeLength="2476.04" waitingTime="0.00" waitingCount="0" stopTime="0.00" timeLoss="4.57" rerouteNo="0" devices="tripinfo_NRA_000000020047_Eastbound-3.1951 ssm_NRA_000000020047_Eastbound-3.1951" vType="CAV2" speedFactor="1.00" vaporized=""/>
    <tripinfo id="NRA_000000001508_Southbound-4.2632" depart="25204.60" departLane="106130759_0" departPos="566.63" departSpeed="28.02" departDelay="0.02" arrival="25333.00" arrivalLane="621521116#0_0" arrivalPos="269.50" arrivalSpeed="16.67" duration="128.40" routeLength="3095.90" waitingTime="0.00" waitingCount="0" stopTime="0.00" timeLoss="0.34" rerouteNo="0" devices="tripinfo_NRA_000000001508_Southbound-4.2632 ssm_NRA_000000001508_Southbound-4.2632" vType="CAV4" speedFactor="1.00" vaporized=""/>
    <tripinfo id="N7-W3.1615" depart="25238.00" departLane="457424511#3_1" departPos="397.10" departSpeed="16.82" departDelay="0.03" arrival="25333.80" arrivalLane="428960734_0" arrivalPos="475.38" arrivalSpeed="24.00" duration="95.80" routeLength="1865.25" waitingTime="0.00" waitingCount="0" stopTime="0.00" timeLoss="0.62" rerouteNo="0" devices="tripinfo_N7-W3.1615 ssm_N7-W3.1615" vType="t_leader2" speedFactor="1.08" vaporized=""/>
    <tripinfo id="N7-W2.1635" depart="25221.20" departLane="457424511#3_1" departPos="86.04" departSpeed="16.69" departDelay="0.07" arrival="25334.20" arrivalLane="428960734_0" arrivalPos="475.38" arrivalSpeed="23.55" duration="113.00" routeLength="2176.31" waitingTime="0.00" waitingCount="0" stopTime="0.00" timeLoss="13.62" rerouteNo="0" devices="tripinfo_N7-W2.1635 ssm_N7-W2.1635" vType="t_follower4" speedFactor="1.04" vaporized=""/>
    <tripinfo id="NRA_000000001509_Northbound-2.1590" depart="25230.00" departLane="75259388-AddedOffRampEdge_0" departPos="357.36" departSpeed="27.27" departDelay="0.00" arrival="25334.80" arrivalLane="428960734_0" arrivalPos="475.38" arrivalSpeed="27.00" duration="104.80" routeLength="2301.76" waitingTime="0.00" waitingCount="0" stopTime="0.00" timeLoss="6.20" rerouteNo="0" devices="tripinfo_NRA_000000001509_Northbound-2.1590 ssm_NRA_000000001509_Northbound-2.1590" vType="t_follower2" speedFactor="1.25" vaporized=""/>
    <tripinfo id="NRA_000000001070_Eastbound-4.1347" depart="25202.80" departLane="293596618#1-AddedOffRampEdge_1" departPos="465.16" departSpeed="22.12" departDelay="0.15" arrival="25335.00" arrivalLane="345616204#1.655_1" arrivalPos="379.47" arrivalSpeed="27.78" duration="132.20" routeLength="2726.50" waitingTime="0.00" waitingCount="0" stopTime="0.00" timeLoss="3.78" rerouteNo="0" devices="tripinfo_NRA_000000001070_Eastbound-4.1347 ssm_NRA_000000001070_Eastbound-4.1347" vType="CAV2" speedFactor="1.00" vaporized=""/>
    <tripinfo id="N7-W2.1634" depart="25217.00" departLane="457424511#3_0" departPos="42.66" departSpeed="16.85" departDelay="0.10" arrival="25335.40" arrivalLane="345616204#1.655_0" arrivalPos="379.47" arrivalSpeed="27.78" duration="118.40" routeLength="2410.43" waitingTime="0.00" waitingCount="0" stopTime="0.00" timeLoss="1.59" rerouteNo="0" devices="tripinfo_N7-W2.1634 ssm_N7-W2.1634" vType="CAV2" speedFactor="1.00" vaporized=""/>
    <tripinfo id="N7-W3.1612" depart="25226.60" departLane="457424511#3_1" departPos="79.03" departSpeed="16.76" departDelay="0.02" arrival="25335.60" arrivalLane="428960734_0" arrivalPos="475.38" arrivalSpeed="25.25" duration="109.00" routeLength="2183.32" waitingTime="0.00" waitingCount="0" stopTime="0.00" timeLoss="5.99" rerouteNo="0" devices="tripinfo_N7-W3.1612 ssm_N7-W3.1612" vType="t_follower4" speedFactor="1.14" vaporized=""/>
    <tripinfo id="N4-W1.1358" depart="25217.40" departLane="319144060_2" departPos="222.17" departSpeed="16.56" departDelay="0.01" arrival="25337.40" arrivalLane="491989399#1-AddedOnRampEdge.925_0" arrivalPos="393.57" arrivalSpeed="22.22" duration="120.00" routeLength="2344.62" waitingTime="0.00" waitingCount="0" stopTime="0.00" timeLoss="0.47" rerouteNo="0" devices="tripinfo_N4-W1.1358 ssm_N4-W1.1358" vType="CAV2" speedFactor="1.00" vaporized=""/>
    <tripinfo id="NRA_000000001509_Northbound-3.673" depart="25232.00" departLane="75259388-AddedOffRampEdge_0" departPos="181.54" departSpeed="28.20" departDelay="0.09" arrival="25339.60" arrivalLane="428960734_0" arrivalPos="475.38" arrivalSpeed="24.00" duration="107.60" routeLength="2477.58" waitingTime="0.00" waitingCount="0" stopTime="0.00" timeLoss="7.20" rerouteNo="0" devices="tripinfo_NRA_000000001509_Northbound-3.673 ssm_NRA_000000001509_Northbound-3.673" vType="t_leader4" speedFactor="1.08" vaporized=""/>
    <tripinfo id="NRA_000000020047_Eastbound-2.1663" depart="25217.40" departLane="48516117_1" departPos="249.60" departSpeed="22.26" departDelay="0.09" arrival="25340.00" arrivalLane="621521116#0_1" arrivalPos="269.50" arrivalSpeed="16.67" duration="122.60" routeLength="2318.60" waitingTime="0.00" waitingCount="0" stopTime="0.00" timeLoss="0.05" rerouteNo="0" devices="tripinfo_NRA_000000020047_Eastbound-2.1663 ssm_NRA_000000020047_Eastbound-2.1663" vType="CAV4" speedFactor="1.00" vaporized=""/>
    <tripinfo id="NRA_000000001070_Eastbound-3.2290" depart="25200.00" departLane="293596618#1-AddedOffRampEdge_1" departPos="128.63" departSpeed="22.46" departDelay="0.00" arrival="25340.20" arrivalLane="345616204#1.655_1" arrivalPos="379.47" arrivalSpeed="30.00" duration="140.20" routeLength="3063.03" waitingTime="0.00" waitingCount="0" stopTime="0.00" timeLoss="6.02" rerouteNo="0" devices="tripinfo_NRA_000000001070_Eastbound-3.2290 ssm_NRA_000000001070_Eastbound-3.2290" vType="t_leader2" speedFactor="1.08" vaporized=""/>
    <tripinfo id="NRA_000000001509_Northbound-1.1078" depart="25231.40" departLane="75259388-AddedOffRampEdge_0" departPos="207.62" departSpeed="28.02" departDelay="0.15" arrival="25340.20" arrivalLane="428960734_0" arrivalPos="475.38" arrivalSpeed="25.25" duration="108.80" routeLength="2451.50" waitingTime="0.00" waitingCount="0" stopTime="0.00" timeLoss="7.61" rerouteNo="0" devices="tripinfo_NRA_000000001509_Northbound-1.1078 ssm_NRA_000000001509_Northbound-1.1078" vType="t_follower2" speedFactor="1.14" vaporized=""/>
    <tripinfo id="NRA_000000001508_Southbound-3.1691" depart="25200.00" departLane="106130759_0" departPos="195.99" departSpeed="27.37" departDelay="0.00" arrival="25340.40" arrivalLane="621521116#0_0" arrivalPos="269.50" arrivalSpeed="18.00" duration="140.40" routeLength="3466.54" waitingTime="0.00" waitingCount="0" stopTime="0.00" timeLoss="0.80" rerouteNo="0" devices="tripinfo_NRA_000000001508_Southbound-3.1691 ssm_NRA_000000001508_Southbound-3.1691" vType="t_leader2" speedFactor="1.08" vaporized=""/>
    <tripinfo id="NRA_000000001070_Eastbound-4.1350" depart="25210.80" departLane="293596618#1-AddedOffRampEdge_1" departPos="475.00" departSpeed="22.34" departDelay="0.18" arrival="25340.40" arrivalLane="345616204#1.655_0" arrivalPos="379.47" arrivalSpeed="30.00" duration="129.60" routeLength="2716.66" waitingTime="0.00" waitingCount="0" stopTime="0.00" timeLoss="7.98" rerouteNo="0" devices="tripinfo_NRA_000000001070_Eastbound-4.1350 ssm_NRA_000000001070_Eastbound-4.1350" vType="t_leader2" speedFactor="1.08" vaporized=""/>
    <tripinfo id="NRA_000000001508_Southbound-2.957" depart="25206.60" departLane="106130759_1" departPos="220.81" departSpeed="29.14" departDelay="0.08" arrival="25340.80" arrivalLane="621521116#0_0" arrivalPos="269.50" arrivalSpeed="19.12" duration="134.20" routeLength="3441.72" waitingTime="0.00" waitingCount="0" stopTime="0.00" timeLoss="10.79" rerouteNo="0" devices="tripinfo_NRA_000000001508_Southbound-2.957 ssm_NRA_000000001508_Southbound-2.957" vType="t_follower2" speedFactor="1.25" vaporized=""/>
    <tripinfo id="NRA_000000001509_Northbound-off-slip-1.769" depart="25217.80" departLane="75259388-AddedOffRampEdge_1" departPos="184.00" departSpeed="28.15" departDelay="0.15" arrival="25340.80" arrivalLane="615002705#1_0" arrivalPos="622.13" arrivalSpeed="16.67" duration="123.00" routeLength="2532.76" waitingTime="0.00" waitingCount="0" stopTime="0.00" timeLoss="0.71" rerouteNo="0" devices="tripinfo_NRA_000000001509_Northbound-off-slip-1.769 ssm_NRA_000000001509_Northbound-off-slip-1.769" vType="CAV4" speedFactor="1.00" vaporized=""/>
    <tripinfo id="N7-W2.1636" depart="25225.40" departLane="457424511#3_0" departPos="14.36" departSpeed="16.36" departDelay="0.05" arrival="25340.80" arrivalLane="345616204#1.655_1" arrivalPos="379.47" arrivalSpeed="32.41" duration="115.40" routeLength="2438.73" waitingTime="0.00" waitingCount="0" stopTime="0.00" timeLoss="3.30" rerouteNo="0" devices="tripinfo_N7-W2.1636 ssm_N7-W2.1636" vType="t_follower2" speedFactor="1.25" vaporized=""/>
    <tripinfo id="NRA_000000001070_Eastbound-4.1346" depart="25200.00" departLane="293596618#1-AddedOffRampEdge_1" departPos="29.30" departSpeed="22.25" departDelay="0.00" arrival="25341.00" arrivalLane="345616204#1.655_0" arrivalPos="379.47" arrivalSpeed="32.01" duration="141.00" routeLength="3162.36" waitingTime="0.00" waitingCount="0" stopTime="0.00" timeLoss="17.22" rerouteNo="0" devices="tripinfo_NRA_000000001070_Eastbound-4.1346 ssm_NRA_000000001070_Eastbound-4.1346" vType="t_follower2" speedFactor="1.25" vaporized=""/>
    <tripinfo id="NRA_000000001070_Eastbound-3.2292" depart="25204.40" departLane="293596618#1-AddedOffRampEdge_1" departPos="117.38" departSpeed="22.58" departDelay="0.02" arrival="25341.40" arrivalLane="345616204#1.655_0" arrivalPos="379.47" arrivalSpeed="28.94" duration="137.00" routeLength="3074.28" waitingTime="0.00" waitingCount="0" stopTime="0.00" timeLoss="18.42" rerouteNo="0" devices="tripinfo_NRA_000000001070_Eastbound-3.2292 ssm_NRA_000000001070_Eastbound-3.2292" vType="t_follower2" speedFactor="1.04" vaporized=""/>
    <tripinfo id="N7-W2.1643" depart="25255.00" departLane="457424511#3_0" departPos="407.13" departSpeed="16.15" departDelay="0.07" arrival="25341.40" arrivalLane="345616204#1.655_1" arrivalPos="379.47" arrivalSpeed="31.57" duration="86.40" routeLength="2045.96" waitingTime="0.00" waitingCount="0" stopTime="0.00" timeLoss="3.78" rerouteNo="0" devices="tripinfo_N7-W2.1643 ssm_N7-W2.1643" vType="t_follower2" speedFactor="1.14" vaporized=""/>
    <tripinfo id="NRA_000000001509_Northbound-2.1589" depart="25226.80" departLane="75259388-AddedOffRampEdge_1" departPos="374.44" departSpeed="27.60" departDelay="0.13" arrival="25341.60" arrivalLane="615002705#1_0" arrivalPos="622.13" arrivalSpeed="16.67" duration="114.80" routeLength="2342.32" waitingTime="0.00" waitingCount="0" stopTime="0.00" timeLoss="9.22" rerouteNo="0" devices="tripinfo_NRA_000000001509_Northbound-2.1589 ssm_NRA_000000001509_Northbound-2.1589" vType="CAV2" speedFactor="1.00" vaporized=""/>
    <tripinfo id="NRA_000000001070_Eastbound-2.2343" depart="25217.80" departLane="293596618#1-AddedOffRampEdge_1" departPos="431.42" departSpeed="21.30" departDelay="0.15" arrival="25342.00" arrivalLane="345616204#1.655_0" arrivalPos="379.47" arrivalSpeed="32.29" duration="124.20" routeLength="2760.24" waitingTime="0.00" waitingCount="0" stopTime="0.00" timeLoss="17.96" rerouteNo="0" devices="tripinfo_NRA_000000001070_Eastbound-2.2343 ssm_NRA_000000001070_Eastbound-2.2343" vType="t_follower2" speedFactor="1.25" vaporized=""/>
    <tripinfo id="NRA_000000001509_Northbound-3.674" depart="25235.20" departLane="75259388-AddedOffRampEdge_0" departPos="219.74" departSpeed="28.28" departDelay="0.09" arrival="25342.60" arrivalLane="428960734_0" arrivalPos="475.38" arrivalSpeed="24.00" duration="107.40" routeLength="2439.38" waitingTime="0.00" waitingCount="0" stopTime="0.00" timeLoss="3.78" rerouteNo="0" devices="tripinfo_NRA_000000001509_Northbound-3.674 ssm_NRA_000000001509_Northbound-3.674" vType="t_leader2" speedFactor="1.08" vaporized=""/>
    <tripinfo id="NRA_000000001509_Northbound-2.1593" depart="25240.00" departLane="75259388-AddedOffRampEdge_0" departPos="342.96" departSpeed="23.56" departDelay="0.00" arrival="25343.00" arrivalLane="428960734_0" arrivalPos="475.38" arrivalSpeed="25.72" duration="103.00" routeLength="2316.16" waitingTime="0.00" waitingCount="0" stopTime="0.00" timeLoss="15.00" rerouteNo="0" devices="tripinfo_NRA_000000001509_Northbound-2.1593 ssm_NRA_000000001509_Northbound-2.1593" vType="t_follower4" speedFactor="1.25" vaporized=""/>
    <tripinfo id="NRA_000000001509_Northbound-2.1591" depart="25233.40" departLane="75259388-AddedOffRampEdge_0" departPos="92.06" departSpeed="27.44" departDelay="0.07" arrival="25343.80" arrivalLane="428960734_0" arrivalPos="475.38" arrivalSpeed="23.15" duration="110.40" routeLength="2567.06" waitingTime="0.00" waitingCount="0" stopTime="0.00" timeLoss="14.13" rerouteNo="0" devices="tripinfo_NRA_000000001509_Northbound-2.1591 ssm_NRA_000000001509_Northbound-2.1591" vType="t_follower4" speedFactor="1.04" vaporized=""/>
    <tripinfo id="NRA_000000001509_Northbound-3.677" depart="25244.80" departLane="75259388-AddedOffRampEdge_0" departPos="370.22" departSpeed="27.33" departDelay="0.12" arrival="25344.40" arrivalLane="428960734_0" arrivalPos="475.38" arrivalSpeed="25.25" duration="99.60" routeLength="2288.90" waitingTime="0.00" waitingCount="0" stopTime="0.00" timeLoss="4.46" rerouteNo="0" devices="tripinfo_NRA_000000001509_Northbound-3.677 ssm_NRA_000000001509_Northbound-3.677" vType="t_follower2" speedFactor="1.14" vaporized=""/>