<?xml version="1.0" encoding="UTF-8"?>

<!-- generated on 2025-05-01 07:55:46 by Eclipse SUMO GUI Version 1.22.0
<sumoConfiguration xmlns:xsi="http://www.w3.org/2001/XMLSchema-instance" xsi:noNamespaceSchemaLocation="http://sumo.dlr.de/xsd/sumoConfiguration.xsd">

    <input>
        <net-file value="M50network.net.xml"/>
        <additional-files value="edgesData.add.xml,simpla.cfg.xml,vtypes.add.xml,M50_routes.rou.xml,M50_emitters.emi.xml,M50_detectors.poi.xml"/>
    </input>

    <output>
        <emission-output value="emission.xml"/>
        <fcd-output value="fcd.xml"/>
        <fcd-output.max-leader-distance value="100"/>
        <tripinfo-output value="tripinfo.xml"/>
        <collision-output value="collisions.xml"/>
    </output>

    <time>
        <begin value="24300"/>
        <end value="28800"/>
        <step-length value="0.5"/>
    </time>

    <processing>
        <collision.mingap-factor value="0"/>
        <emergencydecel.warning-threshold value="5"/>
    </processing>

    <report>
        <verbose value="true"/>
        <xml-validation.routes value="never"/>
    </report>

    <traci_server>
        <remote-port value="61581"/>
    </traci_server>

</sumoConfiguration>
-->

<fcd-export xmlns:xsi="http://www.w3.org/2001/XMLSchema-instance" xsi:noNamespaceSchemaLocation="http://sumo.dlr.de/xsd/fcd_file.xsd">
</fcd-export>
